<?xml version="1.0" encoding="UTF-8"?>

<!-- generated on 2021-09-21 14:34:41 by Eclipse SUMO sumo Version 1.9.2
<configuration xmlns:xsi="http://www.w3.org/2001/XMLSchema-instance" xsi:noNamespaceSchemaLocation="http://sumo.dlr.de/xsd/sumoConfiguration.xsd">

    <input>
        <net-file value="f2md-networks/LuSTNanoScenario/lust.net.xml"/>
        <route-files value="f2md-networks/LuSTNanoScenario/buslines.rou.xml,f2md-networks/LuSTNanoScenario/due.local.actuated.0.rou.xml,f2md-networks/LuSTNanoScenario/due.local.actuated.1.rou.xml,f2md-networks/LuSTNanoScenario/due.local.actuated.2.rou.xml"/>
        <additional-files value="f2md-networks/LuSTNanoScenario/vtypes.add.xml,f2md-networks/LuSTNanoScenario/lust.add.xml,f2md-networks/LuSTNanoScenario/lust.poly.xml"/>
    </input>

    <output>
        <summary-output value="f2md-networks/LuSTNanoScenario/due.actuated.summary.xml"/>
        <tripinfo-output value="f2md-networks/LuSTNanoScenario/due.actuated.tripinfo.xml"/>
    </output>

    <time>
        <begin value="0"/>
        <end value="86400"/>
        <step-length value="0.1"/>
    </time>

    <processing>
        <ignore-junction-blocker value="20"/>
        <scale value="1"/>
        <time-to-teleport value="600"/>
        <max-depart-delay value="600"/>
    </processing>

    <routing>
        <routing-algorithm value="dijkstra"/>
    </routing>

    <report>
        <verbose value="true"/>
        <log value="f2md-networks/LuSTNanoScenario/due.actuated.log"/>
        <message-log value="results/sumo-0.log"/>
        <no-step-log value="true"/>
    </report>

    <traci_server>
        <remote-port value="41507"/>
    </traci_server>

    <random_number>
        <seed value="23423"/>
    </random_number>

    <gui_only>
        <gui-settings-file value="f2md-networks/LuSTNanoScenario/gui-settings.cfg.xml"/>
        <quit-on-end value="true"/>
        <start value="true"/>
        <tracker-interval value="0.1"/>
    </gui_only>

</configuration>
-->

<tripinfos xmlns:xsi="http://www.w3.org/2001/XMLSchema-instance" xsi:noNamespaceSchemaLocation="http://sumo.dlr.de/xsd/tripinfo_file.xsd">
    <tripinfo id="randUni1024:1" depart="239.60" departLane="-30892#20_0" departPos="23.29" departSpeed="0.00" departDelay="0.09" arrival="366.70" arrivalLane="-32558_0" arrivalPos="26.40" arrivalSpeed="0.91" duration="127.10" routeLength="876.19" waitingTime="47.10" waitingCount="2" stopTime="0.00" timeLoss="59.88" rerouteNo="0" devices="tripinfo_randUni1024:1" vType="passenger2b" speedFactor="0.94" vaporized=""/>
    <tripinfo id="randUni19500:1" depart="302.00" departLane="-30552_0" departPos="21.70" departSpeed="0.00" departDelay="0.01" arrival="375.70" arrivalLane="--30968#1_0" arrivalPos="43.38" arrivalSpeed="0.77" duration="73.70" routeLength="898.90" waitingTime="0.00" waitingCount="0" stopTime="0.00" timeLoss="10.89" rerouteNo="0" devices="tripinfo_randUni19500:1" vType="passenger2b" speedFactor="1.03" vaporized=""/>
    <tripinfo id="randUni7144:1" depart="522.00" departLane="-32618#5_0" departPos="13.80" departSpeed="0.00" departDelay="0.00" arrival="564.30" arrivalLane="-31066#8_1" arrivalPos="9.09" arrivalSpeed="1.02" duration="42.30" routeLength="521.93" waitingTime="0.00" waitingCount="0" stopTime="0.00" timeLoss="6.38" rerouteNo="0" devices="tripinfo_randUni7144:1" vType="passenger1" speedFactor="1.05" vaporized=""/>
    <tripinfo id="randUni1785:1" depart="434.70" departLane="-31340#0_0" departPos="355.54" departSpeed="0.00" departDelay="0.09" arrival="600.20" arrivalLane="-31066#8_1" arrivalPos="122.95" arrivalSpeed="1.12" duration="165.50" routeLength="1809.96" waitingTime="0.00" waitingCount="0" stopTime="0.00" timeLoss="8.71" rerouteNo="0" devices="tripinfo_randUni1785:1" vType="passenger1" speedFactor="0.83" vaporized=""/>
    <tripinfo id="randUni18347:1" depart="577.00" departLane="--30892#25_0" departPos="184.46" departSpeed="0.00" departDelay="0.00" arrival="674.60" arrivalLane="-31066#8_1" arrivalPos="155.29" arrivalSpeed="0.90" duration="97.60" routeLength="649.16" waitingTime="35.00" waitingCount="1" stopTime="0.00" timeLoss="44.86" rerouteNo="0" devices="tripinfo_randUni18347:1" vType="passenger1" speedFactor="0.89" vaporized=""/>
    <tripinfo id="randUni4182:1" depart="632.40" departLane="-31340#0_0" departPos="172.47" departSpeed="0.00" departDelay="0.00" arrival="709.30" arrivalLane="--30740#2_0" arrivalPos="0.47" arrivalSpeed="0.92" duration="76.90" routeLength="902.22" waitingTime="0.00" waitingCount="0" stopTime="0.00" timeLoss="7.65" rerouteNo="0" devices="tripinfo_randUni4182:1" vType="passenger1" speedFactor="0.94" vaporized=""/>
    <tripinfo id="randUni11559:1" depart="753.00" departLane="-30740#0_0" departPos="113.57" departSpeed="0.00" departDelay="0.00" arrival="795.10" arrivalLane="--31340#0_0" arrivalPos="300.61" arrivalSpeed="1.04" duration="42.10" routeLength="530.85" waitingTime="0.00" waitingCount="0" stopTime="0.00" timeLoss="7.06" rerouteNo="0" devices="tripinfo_randUni11559:1" vType="passenger1" speedFactor="1.09" vaporized=""/>
    <tripinfo id="randUni3220:1" depart="661.10" departLane="--30892#26_0" departPos="14.61" departSpeed="0.00" departDelay="0.02" arrival="835.90" arrivalLane="--30892#20_0" arrivalPos="21.09" arrivalSpeed="0.82" duration="174.80" routeLength="1101.46" waitingTime="70.30" waitingCount="2" stopTime="0.00" timeLoss="82.27" rerouteNo="0" devices="tripinfo_randUni3220:1" vType="passenger2b" speedFactor="0.86" vaporized=""/>
    <tripinfo id="randUni13901:1" depart="775.30" departLane="-31340#0_0" departPos="537.48" departSpeed="0.00" departDelay="0.01" arrival="844.90" arrivalLane="-30544_0" arrivalPos="26.59" arrivalSpeed="0.92" duration="69.60" routeLength="885.39" waitingTime="0.00" waitingCount="0" stopTime="0.00" timeLoss="7.49" rerouteNo="0" devices="tripinfo_randUni13901:1" vType="passenger2b" speedFactor="1.03" vaporized=""/>
    <tripinfo id="randUni12682:1" depart="886.00" departLane="--31066#4_0" departPos="50.65" departSpeed="0.00" departDelay="0.00" arrival="938.80" arrivalLane="--31340#0_0" arrivalPos="29.79" arrivalSpeed="0.99" duration="52.80" routeLength="630.92" waitingTime="0.00" waitingCount="0" stopTime="0.00" timeLoss="6.98" rerouteNo="0" devices="tripinfo_randUni12682:1" vType="passenger5" speedFactor="0.99" vaporized=""/>
    <tripinfo id="randUni690:1" depart="880.00" departLane="-30968#2_0" departPos="20.77" departSpeed="0.00" departDelay="0.00" arrival="953.60" arrivalLane="--30892#20_0" arrivalPos="21.42" arrivalSpeed="1.11" duration="73.60" routeLength="657.98" waitingTime="19.70" waitingCount="1" stopTime="0.00" timeLoss="31.42" rerouteNo="0" devices="tripinfo_randUni690:1" vType="passenger2a" speedFactor="1.12" vaporized=""/>
    <tripinfo id="randUni15016:1" depart="835.00" departLane="-31340#1_0" departPos="48.90" departSpeed="0.00" departDelay="0.00" arrival="963.70" arrivalLane="--30892#20_0" arrivalPos="10.09" arrivalSpeed="0.95" duration="128.70" routeLength="1297.04" waitingTime="26.80" waitingCount="1" stopTime="0.00" timeLoss="39.52" rerouteNo="0" devices="tripinfo_randUni15016:1" vType="passenger2b" speedFactor="1.05" vaporized=""/>
    <tripinfo id="randUni1008:1" depart="906.10" departLane="-30892#20_0" departPos="7.42" departSpeed="0.00" departDelay="0.01" arrival="1049.80" arrivalLane="--31066#0_1" arrivalPos="1.52" arrivalSpeed="0.99" duration="143.70" routeLength="1387.95" waitingTime="21.30" waitingCount="1" stopTime="0.00" timeLoss="35.89" rerouteNo="0" devices="tripinfo_randUni1008:1" vType="passenger1" speedFactor="0.93" vaporized=""/>
    <tripinfo id="randUni1444:1" depart="949.00" departLane="--30348#4_0" departPos="3.58" departSpeed="0.00" departDelay="0.00" arrival="1073.90" arrivalLane="--30892#20_0" arrivalPos="9.62" arrivalSpeed="1.08" duration="124.90" routeLength="990.99" waitingTime="30.10" waitingCount="2" stopTime="0.00" timeLoss="43.69" rerouteNo="0" devices="tripinfo_randUni1444:1" vType="passenger2a" speedFactor="0.88" vaporized=""/>
    <tripinfo id="randUni5421:1" depart="987.40" departLane="-30892#20_0" departPos="0.93" departSpeed="0.00" departDelay="0.00" arrival="1087.50" arrivalLane="-31740#1_0" arrivalPos="16.81" arrivalSpeed="0.88" duration="100.10" routeLength="861.82" waitingTime="20.30" waitingCount="2" stopTime="0.00" timeLoss="33.83" rerouteNo="0" devices="tripinfo_randUni5421:1" vType="passenger2b" speedFactor="0.94" vaporized=""/>
</tripinfos>
