<?xml version="1.0" encoding="UTF-8"?>

<!-- generated on 2021-09-08 15:13:01 by Eclipse SUMO sumo Version 1.9.2
<configuration xmlns:xsi="http://www.w3.org/2001/XMLSchema-instance" xsi:noNamespaceSchemaLocation="http://sumo.dlr.de/xsd/sumoConfiguration.xsd">

    <input>
        <net-file value="../../../veins-f2md/f2md-networks/LuSTScenario/lust.net.xml"/>
        <route-files value="../../../veins-f2md/f2md-networks/LuSTScenario/buslines.rou.xml,../../../veins-f2md/f2md-networks/LuSTScenario/due.local.actuated.0.rou.xml,../../../veins-f2md/f2md-networks/LuSTScenario/due.local.actuated.1.rou.xml,../../../veins-f2md/f2md-networks/LuSTScenario/due.local.actuated.2.rou.xml,../../../veins-f2md/f2md-networks/LuSTScenario/transit.rou.xml"/>
        <additional-files value="../../../veins-f2md/f2md-networks/LuSTScenario/vtypes.add.xml,../../../veins-f2md/f2md-networks/LuSTScenario/e1detectors.add.xml,../../../veins-f2md/f2md-networks/LuSTScenario/lust.poly.xml"/>
    </input>

    <output>
        <summary-output value="../../../veins-f2md/f2md-networks/LuSTScenario/due.actuated.summary.xml"/>
        <tripinfo-output value="../../../veins-f2md/f2md-networks/LuSTScenario/due.actuated.tripinfo.xml"/>
    </output>

    <time>
        <begin value="0"/>
        <end value="86400"/>
        <step-length value="0.1"/>
    </time>

    <processing>
        <ignore-junction-blocker value="20"/>
        <scale value="1"/>
        <time-to-teleport value="600"/>
        <max-depart-delay value="600"/>
    </processing>

    <routing>
        <routing-algorithm value="dijkstra"/>
    </routing>

    <report>
        <verbose value="false"/>
        <log value="../../../veins-f2md/f2md-networks/LuSTScenario/due.actuated.log"/>
        <message-log value="results/sumo-0.log"/>
        <no-step-log value="true"/>
    </report>

    <traci_server>
        <remote-port value="37027"/>
    </traci_server>

    <random_number>
        <seed value="23423"/>
    </random_number>

    <gui_only>
        <gui-settings-file value="../../../veins-f2md/f2md-networks/LuSTScenario/gui-settings.cfg.xml"/>
        <quit-on-end value="true"/>
        <start value="true"/>
        <tracker-interval value="0.1"/>
    </gui_only>

</configuration>
-->

<tripinfos xmlns:xsi="http://www.w3.org/2001/XMLSchema-instance" xsi:noNamespaceSchemaLocation="http://sumo.dlr.de/xsd/tripinfo_file.xsd">
    <tripinfo id="randUni834:1" depart="5.00" departLane="--32406#3_0" departPos="44.28" departSpeed="0.00" departDelay="0.00" arrival="39.60" arrivalLane="--31212_0" arrivalPos="134.87" arrivalSpeed="0.94" duration="34.60" routeLength="419.00" waitingTime="0.00" waitingCount="0" stopTime="0.00" timeLoss="4.75" rerouteNo="0" devices="tripinfo_randUni834:1" vType="passenger2b" speedFactor="1.01" vaporized=""/>
    <tripinfo id="randUni16882:1" depart="14.00" departLane="-32340#7_0" departPos="8.34" departSpeed="0.00" departDelay="0.00" arrival="115.20" arrivalLane="-32660_0" arrivalPos="41.64" arrivalSpeed="0.83" duration="101.20" routeLength="1285.61" waitingTime="0.00" waitingCount="0" stopTime="0.00" timeLoss="9.58" rerouteNo="0" devices="tripinfo_randUni16882:1" vType="passenger1" speedFactor="1.01" vaporized=""/>
    <tripinfo id="randUni11317:1" depart="11.00" departLane="--31490_0" departPos="79.31" departSpeed="0.00" departDelay="0.00" arrival="174.30" arrivalLane="-31290#1_0" arrivalPos="2.17" arrivalSpeed="0.95" duration="163.30" routeLength="1692.56" waitingTime="30.00" waitingCount="2" stopTime="0.00" timeLoss="60.36" rerouteNo="0" devices="tripinfo_randUni11317:1" vType="passenger2a" speedFactor="1.16" vaporized=""/>
    <tripinfo id="NBSKMS_Nightbus_0" depart="39.00" departLane="-32278#1_0" departPos="0.00" departSpeed="0.00" departDelay="0.00" arrival="226.50" arrivalLane="-32278#5_0" arrivalPos="841.44" arrivalSpeed="14.53" duration="187.50" routeLength="1905.19" waitingTime="42.40" waitingCount="1" stopTime="0.00" timeLoss="56.49" rerouteNo="0" devices="tripinfo_NBSKMS_Nightbus_0" vType="bus" speedFactor="1.05" vaporized=""/>
    <tripinfo id="NBSKMS_Nightbus_1" depart="39.00" departLane="--32278#5_0" departPos="0.00" departSpeed="0.00" departDelay="0.00" arrival="229.00" arrivalLane="--32278#1_0" arrivalPos="139.07" arrivalSpeed="15.53" duration="190.00" routeLength="1910.02" waitingTime="57.70" waitingCount="1" stopTime="0.00" timeLoss="67.48" rerouteNo="0" devices="tripinfo_NBSKMS_Nightbus_1" vType="bus" speedFactor="1.12" vaporized=""/>
    <tripinfo id="0FRtoLU.0" depart="42.00" departLane="-32426#0_0" departPos="5.10" departSpeed="13.89" departDelay="0.00" arrival="282.50" arrivalLane="-32400#5_0" arrivalPos="257.03" arrivalSpeed="37.56" duration="240.50" routeLength="6507.94" waitingTime="0.00" waitingCount="0" stopTime="0.00" timeLoss="10.19" rerouteNo="0" devices="tripinfo_0FRtoLU.0" vType="passenger1" speedFactor="1.04" vaporized=""/>
    <tripinfo id="0FRtoLU.1" depart="63.00" departLane="-32426#0_0" departPos="5.10" departSpeed="13.89" departDelay="0.00" arrival="338.20" arrivalLane="-32400#5_0" arrivalPos="257.03" arrivalSpeed="32.51" duration="275.20" routeLength="6507.94" waitingTime="0.00" waitingCount="0" stopTime="0.00" timeLoss="8.28" rerouteNo="0" devices="tripinfo_0FRtoLU.1" vType="passenger1" speedFactor="0.90" vaporized=""/>
    <tripinfo id="0FRtoLU.2" depart="119.00" departLane="-32426#0_0" departPos="6.10" departSpeed="13.89" departDelay="0.00" arrival="339.20" arrivalLane="-32400#5_0" arrivalPos="257.03" arrivalSpeed="34.07" duration="220.20" routeLength="6506.94" waitingTime="0.00" waitingCount="0" stopTime="0.00" timeLoss="14.66" rerouteNo="0" devices="tripinfo_0FRtoLU.2" vType="passenger3" speedFactor="1.17" vaporized=""/>
    <tripinfo id="randUni13606:1" depart="27.00" departLane="--32244_0" departPos="186.38" departSpeed="0.00" departDelay="0.00" arrival="345.80" arrivalLane="-31068#1_0" arrivalPos="189.33" arrivalSpeed="0.75" duration="318.80" routeLength="2938.53" waitingTime="56.60" waitingCount="4" stopTime="0.00" timeLoss="87.33" rerouteNo="0" devices="tripinfo_randUni13606:1" vType="passenger4" speedFactor="0.89" vaporized=""/>
    <tripinfo id="randUni3742:1" depart="283.00" departLane="--32124#1_0" departPos="23.79" departSpeed="0.00" departDelay="0.00" arrival="359.20" arrivalLane="--31894#2_0" arrivalPos="15.94" arrivalSpeed="1.01" duration="76.20" routeLength="468.09" waitingTime="31.50" waitingCount="1" stopTime="0.00" timeLoss="41.80" rerouteNo="0" devices="tripinfo_randUni3742:1" vType="passenger2a" speedFactor="0.94" vaporized=""/>
    <tripinfo id="0DEtoLU.0" depart="15.00" departLane="-31622#0_0" departPos="4.60" departSpeed="13.89" departDelay="0.00" arrival="361.50" arrivalLane="-32400#5_1" arrivalPos="257.03" arrivalSpeed="37.43" duration="346.50" routeLength="11354.22" waitingTime="0.00" waitingCount="0" stopTime="0.00" timeLoss="6.39" rerouteNo="0" devices="tripinfo_0DEtoLU.0" vType="passenger2a" speedFactor="1.04" vaporized=""/>
    <tripinfo id="0LUtoDE.0" depart="45.00" departLane="-30706#0_0" departPos="5.10" departSpeed="13.89" departDelay="0.00" arrival="374.00" arrivalLane="-30668#16_1" arrivalPos="272.49" arrivalSpeed="35.93" duration="329.00" routeLength="10511.80" waitingTime="0.00" waitingCount="0" stopTime="0.00" timeLoss="6.86" rerouteNo="0" devices="tripinfo_0LUtoDE.0" vType="passenger1" speedFactor="1.00" vaporized=""/>
    <tripinfo id="0DEtoLU.1" depart="43.00" departLane="-31622#0_0" departPos="6.10" departSpeed="13.89" departDelay="0.00" arrival="374.90" arrivalLane="-32400#5_1" arrivalPos="257.03" arrivalSpeed="39.18" duration="331.90" routeLength="11352.72" waitingTime="0.00" waitingCount="0" stopTime="0.00" timeLoss="7.51" rerouteNo="0" devices="tripinfo_0DEtoLU.1" vType="passenger3" speedFactor="1.09" vaporized=""/>
    <tripinfo id="0FRtoLU.3" depart="129.00" departLane="-32426#0_0" departPos="5.10" departSpeed="13.89" departDelay="0.00" arrival="378.20" arrivalLane="-32400#5_0" arrivalPos="257.03" arrivalSpeed="36.16" duration="249.20" routeLength="6507.94" waitingTime="0.00" waitingCount="0" stopTime="0.00" timeLoss="9.62" rerouteNo="0" devices="tripinfo_0FRtoLU.3" vType="passenger1" speedFactor="1.00" vaporized=""/>
    <tripinfo id="0BEtoFR.1" depart="145.00" departLane="-30668#0_0" departPos="4.60" departSpeed="13.89" departDelay="0.00" arrival="395.90" arrivalLane="-31366#3_1" arrivalPos="20.69" arrivalSpeed="41.20" duration="250.90" routeLength="9435.52" waitingTime="0.00" waitingCount="0" stopTime="0.00" timeLoss="7.50" rerouteNo="0" devices="tripinfo_0BEtoFR.1" vType="passenger2a" speedFactor="1.14" vaporized=""/>
    <tripinfo id="0LUtoBE.0" depart="12.00" departLane="-30706#0_0" departPos="4.60" departSpeed="13.89" departDelay="0.00" arrival="406.60" arrivalLane="-31622#16_1" arrivalPos="305.81" arrivalSpeed="34.53" duration="394.60" routeLength="11318.23" waitingTime="0.00" waitingCount="0" stopTime="0.00" timeLoss="8.53" rerouteNo="0" devices="tripinfo_0LUtoBE.0" vType="passenger2a" speedFactor="0.96" vaporized=""/>
    <tripinfo id="0LUtoDE.1" depart="122.00" departLane="-30706#0_0" departPos="4.60" departSpeed="13.89" departDelay="0.00" arrival="422.60" arrivalLane="-30668#16_1" arrivalPos="272.49" arrivalSpeed="39.46" duration="300.60" routeLength="10512.30" waitingTime="0.00" waitingCount="0" stopTime="0.00" timeLoss="7.44" rerouteNo="0" devices="tripinfo_0LUtoDE.1" vType="passenger2b" speedFactor="1.10" vaporized=""/>
    <tripinfo id="randUni8397:1" depart="348.00" departLane="--30528#29_0" departPos="19.43" departSpeed="0.00" departDelay="0.00" arrival="427.90" arrivalLane="--30778#0_0" arrivalPos="16.16" arrivalSpeed="0.91" duration="79.90" routeLength="922.79" waitingTime="0.00" waitingCount="0" stopTime="0.00" timeLoss="13.95" rerouteNo="0" devices="tripinfo_randUni8397:1" vType="passenger1" speedFactor="1.01" vaporized=""/>
    <tripinfo id="0BEtoFR.0" depart="96.00" departLane="-30668#0_0" departPos="7.10" departSpeed="13.89" departDelay="0.00" arrival="433.70" arrivalLane="-31366#3_1" arrivalPos="20.69" arrivalSpeed="29.93" duration="337.70" routeLength="9433.02" waitingTime="0.00" waitingCount="0" stopTime="0.00" timeLoss="5.31" rerouteNo="0" devices="tripinfo_0BEtoFR.0" vType="passenger5" speedFactor="0.88" vaporized=""/>
    <tripinfo id="randUni10908:1" depart="127.00" departLane="-31302_0" departPos="12.14" departSpeed="0.00" departDelay="0.00" arrival="434.40" arrivalLane="--32160#3_0" arrivalPos="34.56" arrivalSpeed="1.04" duration="307.40" routeLength="3138.89" waitingTime="78.90" waitingCount="3" stopTime="0.00" timeLoss="114.55" rerouteNo="0" devices="tripinfo_randUni10908:1" vType="passenger2b" speedFactor="1.17" vaporized=""/>
    <tripinfo id="0FRtoLU.4" depart="192.00" departLane="-32426#0_0" departPos="4.60" departSpeed="13.89" departDelay="0.00" arrival="444.20" arrivalLane="-32400#5_0" arrivalPos="257.03" arrivalSpeed="35.55" duration="252.20" routeLength="6508.44" waitingTime="0.00" waitingCount="0" stopTime="0.00" timeLoss="8.74" rerouteNo="0" devices="tripinfo_0FRtoLU.4" vType="passenger2a" speedFactor="0.99" vaporized=""/>
    <tripinfo id="0DEtoFR.2" depart="14.00" departLane="-31622#0_0" departPos="5.10" departSpeed="13.89" departDelay="0.00" arrival="450.60" arrivalLane="-31366#3_1" arrivalPos="20.69" arrivalSpeed="39.38" duration="436.60" routeLength="15900.65" waitingTime="0.00" waitingCount="0" stopTime="0.00" timeLoss="7.90" rerouteNo="0" devices="tripinfo_0DEtoFR.2" vType="passenger1" speedFactor="1.09" vaporized=""/>
    <tripinfo id="0FRtoBE.0" depart="96.00" departLane="-32426#0_0" departPos="4.60" departSpeed="13.89" departDelay="0.00" arrival="455.00" arrivalLane="-31622#16_1" arrivalPos="305.81" arrivalSpeed="30.60" duration="359.00" routeLength="9592.32" waitingTime="0.00" waitingCount="0" stopTime="0.00" timeLoss="7.36" rerouteNo="0" devices="tripinfo_0FRtoBE.0" vType="passenger2b" speedFactor="0.85" vaporized=""/>
    <tripinfo id="0DEtoFR.1" depart="8.00" departLane="-31622#0_0" departPos="4.60" departSpeed="13.89" departDelay="0.00" arrival="462.90" arrivalLane="-31366#3_1" arrivalPos="20.69" arrivalSpeed="37.73" duration="454.90" routeLength="15901.15" waitingTime="0.00" waitingCount="0" stopTime="0.00" timeLoss="7.32" rerouteNo="0" devices="tripinfo_0DEtoFR.1" vType="passenger2b" speedFactor="1.05" vaporized=""/>
    <tripinfo id="randUni2416:1" depart="301.00" departLane="--32280#0_0" departPos="59.68" departSpeed="0.00" departDelay="0.00" arrival="467.20" arrivalLane="-31904#2_0" arrivalPos="20.06" arrivalSpeed="0.99" duration="166.20" routeLength="2015.75" waitingTime="2.10" waitingCount="1" stopTime="0.00" timeLoss="20.42" rerouteNo="0" devices="tripinfo_randUni2416:1" vType="passenger5" speedFactor="0.98" vaporized=""/>
    <tripinfo id="randUni19500:1" depart="198.00" departLane="-31230#5_0" departPos="110.20" departSpeed="0.00" departDelay="0.00" arrival="474.90" arrivalLane="--30968#1_0" arrivalPos="87.47" arrivalSpeed="0.96" duration="276.90" routeLength="2439.53" waitingTime="90.00" waitingCount="2" stopTime="0.00" timeLoss="117.93" rerouteNo="0" devices="tripinfo_randUni19500:1" vType="passenger2b" speedFactor="1.10" vaporized=""/>
    <tripinfo id="randUni18368:1" depart="0.00" departLane="-31606#0_0" departPos="177.47" departSpeed="0.00" departDelay="0.00" arrival="477.40" arrivalLane="-30496#4_1" arrivalPos="97.49" arrivalSpeed="1.09" duration="477.40" routeLength="3310.62" waitingTime="198.40" waitingCount="6" stopTime="0.00" timeLoss="235.76" rerouteNo="0" devices="tripinfo_randUni18368:1" vType="passenger2a" speedFactor="0.94" vaporized=""/>
    <tripinfo id="0LUtoDE.2" depart="205.00" departLane="-30706#0_0" departPos="4.60" departSpeed="13.89" departDelay="0.00" arrival="492.50" arrivalLane="-30668#16_1" arrivalPos="272.49" arrivalSpeed="41.36" duration="287.50" routeLength="10512.30" waitingTime="0.00" waitingCount="0" stopTime="0.00" timeLoss="7.61" rerouteNo="0" devices="tripinfo_0LUtoDE.2" vType="passenger2b" speedFactor="1.15" vaporized=""/>
    <tripinfo id="0FRtoBE.1" depart="190.00" departLane="-32426#0_0" departPos="4.60" departSpeed="13.89" departDelay="0.00" arrival="494.30" arrivalLane="-31622#16_1" arrivalPos="305.81" arrivalSpeed="36.64" duration="304.30" routeLength="9592.32" waitingTime="0.00" waitingCount="0" stopTime="0.00" timeLoss="9.93" rerouteNo="0" devices="tripinfo_0FRtoBE.1" vType="passenger2b" speedFactor="1.02" vaporized=""/>
    <tripinfo id="0BEtoFR.2" depart="215.00" departLane="-30668#0_0" departPos="4.60" departSpeed="13.89" departDelay="0.00" arrival="506.30" arrivalLane="-31366#3_1" arrivalPos="20.69" arrivalSpeed="35.22" duration="291.30" routeLength="9435.52" waitingTime="0.00" waitingCount="0" stopTime="0.00" timeLoss="6.28" rerouteNo="0" devices="tripinfo_0BEtoFR.2" vType="passenger2b" speedFactor="0.98" vaporized=""/>
    <tripinfo id="0LUtoBE.1" depart="133.00" departLane="-30706#0_0" departPos="5.10" departSpeed="13.89" departDelay="0.00" arrival="514.40" arrivalLane="-31622#16_1" arrivalPos="305.81" arrivalSpeed="35.95" duration="381.40" routeLength="11317.73" waitingTime="0.00" waitingCount="0" stopTime="0.00" timeLoss="10.32" rerouteNo="0" devices="tripinfo_0LUtoBE.1" vType="passenger1" speedFactor="1.00" vaporized=""/>
    <tripinfo id="randUni20481:1" depart="13.00" departLane="--32468#2_0" departPos="24.87" departSpeed="0.00" departDelay="0.00" arrival="515.10" arrivalLane="-30528#52_1" arrivalPos="16.11" arrivalSpeed="0.87" duration="502.10" routeLength="5820.63" waitingTime="73.70" waitingCount="2" stopTime="0.00" timeLoss="101.06" rerouteNo="0" devices="tripinfo_randUni20481:1" vType="passenger1" speedFactor="1.02" vaporized=""/>
    <tripinfo id="0BEtoFR.3" depart="239.00" departLane="-30668#0_0" departPos="4.60" departSpeed="13.89" departDelay="0.00" arrival="519.60" arrivalLane="-31366#3_2" arrivalPos="20.69" arrivalSpeed="36.64" duration="280.60" routeLength="9435.52" waitingTime="0.00" waitingCount="0" stopTime="0.00" timeLoss="6.97" rerouteNo="0" devices="tripinfo_0BEtoFR.3" vType="passenger2a" speedFactor="1.02" vaporized=""/>
    <tripinfo id="0FRtoLU.5" depart="243.00" departLane="-32426#0_0" departPos="5.10" departSpeed="13.89" departDelay="0.00" arrival="520.80" arrivalLane="-32400#5_0" arrivalPos="257.03" arrivalSpeed="32.12" duration="277.80" routeLength="6507.94" waitingTime="0.00" waitingCount="0" stopTime="0.00" timeLoss="8.32" rerouteNo="0" devices="tripinfo_0FRtoLU.5" vType="passenger1" speedFactor="0.89" vaporized=""/>
    <tripinfo id="CNA____NBNA_0" depart="2.00" departLane="-32278#1_2" departPos="0.00" departSpeed="0.00" departDelay="0.00" arrival="528.70" arrivalLane="--32924#0_0" arrivalPos="360.91" arrivalSpeed="14.68" duration="526.70" routeLength="5754.48" waitingTime="116.80" waitingCount="4" stopTime="0.00" timeLoss="144.82" rerouteNo="0" devices="tripinfo_CNA____NBNA_0" vType="bus" speedFactor="1.06" vaporized=""/>
    <tripinfo id="0DEtoLU.2" depart="160.00" departLane="-31622#0_0" departPos="5.10" departSpeed="13.89" departDelay="0.00" arrival="533.00" arrivalLane="-32400#5_1" arrivalPos="257.03" arrivalSpeed="34.96" duration="373.00" routeLength="11353.72" waitingTime="0.00" waitingCount="0" stopTime="0.00" timeLoss="8.90" rerouteNo="0" devices="tripinfo_0DEtoLU.2" vType="passenger1" speedFactor="0.97" vaporized=""/>
    <tripinfo id="0FRtoLU.6" depart="272.00" departLane="-32426#0_0" departPos="4.60" departSpeed="13.89" departDelay="0.00" arrival="545.30" arrivalLane="-32400#5_0" arrivalPos="257.03" arrivalSpeed="32.68" duration="273.30" routeLength="6508.44" waitingTime="0.00" waitingCount="0" stopTime="0.00" timeLoss="8.13" rerouteNo="0" devices="tripinfo_0FRtoLU.6" vType="passenger2b" speedFactor="0.91" vaporized=""/>
    <tripinfo id="randUni9228:1" depart="392.00" departLane="-31648#0_0" departPos="9.15" departSpeed="0.00" departDelay="0.00" arrival="547.10" arrivalLane="-30608#9_1" arrivalPos="2.09" arrivalSpeed="0.79" duration="155.10" routeLength="1656.06" waitingTime="15.10" waitingCount="2" stopTime="0.00" timeLoss="36.43" rerouteNo="0" devices="tripinfo_randUni9228:1" vType="passenger1" speedFactor="1.00" vaporized=""/>
    <tripinfo id="0LUtoFR.0" depart="235.00" departLane="-30706#0_0" departPos="5.10" departSpeed="13.89" departDelay="0.00" arrival="556.50" arrivalLane="-31366#3_1" arrivalPos="20.69" arrivalSpeed="37.55" duration="321.50" routeLength="8111.00" waitingTime="0.00" waitingCount="0" stopTime="0.00" timeLoss="25.73" rerouteNo="0" devices="tripinfo_0LUtoFR.0" vType="passenger1" speedFactor="1.04" vaporized=""/>
    <tripinfo id="0LUtoFR.1" depart="238.00" departLane="-30706#0_0" departPos="4.60" departSpeed="13.89" departDelay="0.00" arrival="558.80" arrivalLane="-31366#3_1" arrivalPos="20.69" arrivalSpeed="36.76" duration="320.80" routeLength="8111.50" waitingTime="0.00" waitingCount="0" stopTime="0.00" timeLoss="19.01" rerouteNo="0" devices="tripinfo_0LUtoFR.1" vType="passenger2a" speedFactor="1.02" vaporized=""/>
    <tripinfo id="0DEtoFR.0" depart="0.00" departLane="-31622#0_0" departPos="5.10" departSpeed="13.89" departDelay="0.00" arrival="569.20" arrivalLane="-31366#3_1" arrivalPos="20.69" arrivalSpeed="29.89" duration="569.20" routeLength="15900.65" waitingTime="0.00" waitingCount="0" stopTime="0.00" timeLoss="5.89" rerouteNo="0" devices="tripinfo_0DEtoFR.0" vType="passenger1" speedFactor="0.83" vaporized=""/>
    <tripinfo id="0FRtoBE.2" depart="267.00" departLane="-32426#0_0" departPos="5.10" departSpeed="13.89" departDelay="0.00" arrival="573.20" arrivalLane="-31622#16_1" arrivalPos="305.81" arrivalSpeed="36.40" duration="306.20" routeLength="9591.82" waitingTime="0.00" waitingCount="0" stopTime="0.00" timeLoss="10.12" rerouteNo="0" devices="tripinfo_0FRtoBE.2" vType="passenger1" speedFactor="1.01" vaporized=""/>
    <tripinfo id="0LUtoFR.2" depart="289.00" departLane="-30706#0_0" departPos="4.60" departSpeed="13.89" departDelay="0.00" arrival="577.90" arrivalLane="-31366#3_1" arrivalPos="20.69" arrivalSpeed="40.41" duration="288.90" routeLength="8111.50" waitingTime="0.00" waitingCount="0" stopTime="0.00" timeLoss="13.89" rerouteNo="0" devices="tripinfo_0LUtoFR.2" vType="passenger2a" speedFactor="1.12" vaporized=""/>
    <tripinfo id="0BEtoLU.0" depart="237.00" departLane="-30668#0_0" departPos="5.10" departSpeed="13.89" departDelay="0.00" arrival="583.00" arrivalLane="-32400#5_0" arrivalPos="257.03" arrivalSpeed="36.24" duration="346.00" routeLength="10745.68" waitingTime="0.00" waitingCount="0" stopTime="0.00" timeLoss="6.97" rerouteNo="0" devices="tripinfo_0BEtoLU.0" vType="passenger1" speedFactor="1.01" vaporized=""/>
    <tripinfo id="0BEtoFR.4" depart="302.00" departLane="-30668#0_0" departPos="5.10" departSpeed="13.89" departDelay="0.00" arrival="599.10" arrivalLane="-31366#3_1" arrivalPos="20.69" arrivalSpeed="34.45" duration="297.10" routeLength="9435.02" waitingTime="0.00" waitingCount="0" stopTime="0.00" timeLoss="6.39" rerouteNo="0" devices="tripinfo_0BEtoFR.4" vType="passenger1" speedFactor="0.96" vaporized=""/>
    <tripinfo id="randUni5174:1" depart="289.00" departLane="--32388_0" departPos="20.35" departSpeed="0.00" departDelay="0.00" arrival="600.00" arrivalLane="-30398#8_0" arrivalPos="10.66" arrivalSpeed="0.91" duration="311.00" routeLength="2405.83" waitingTime="121.30" waitingCount="5" stopTime="0.00" timeLoss="156.84" rerouteNo="0" devices="tripinfo_randUni5174:1" vType="passenger2a" speedFactor="1.06" vaporized=""/>
    <tripinfo id="CNA____NBNA_1" depart="2.00" departLane="-32924#0_0" departPos="0.00" departSpeed="0.00" departDelay="0.00" arrival="600.10" arrivalLane="--32278#1_0" arrivalPos="139.07" arrivalSpeed="12.20" duration="598.10" routeLength="5718.71" waitingTime="119.00" waitingCount="4" stopTime="0.00" timeLoss="144.20" rerouteNo="0" devices="tripinfo_CNA____NBNA_1" vType="bus" speedFactor="0.89" vaporized=""/>
    <tripinfo id="0DEtoLU.3" depart="265.00" departLane="-31622#0_0" departPos="5.10" departSpeed="13.89" departDelay="0.00" arrival="606.50" arrivalLane="-32400#5_1" arrivalPos="257.03" arrivalSpeed="38.12" duration="341.50" routeLength="11353.72" waitingTime="0.00" waitingCount="0" stopTime="0.00" timeLoss="7.50" rerouteNo="0" devices="tripinfo_0DEtoLU.3" vType="passenger1" speedFactor="1.06" vaporized=""/>
    <tripinfo id="0BEtoLU.2" depart="292.00" departLane="-30668#0_0" departPos="6.10" departSpeed="13.89" departDelay="0.00" arrival="612.30" arrivalLane="-32400#5_0" arrivalPos="257.03" arrivalSpeed="39.58" duration="320.30" routeLength="10744.68" waitingTime="0.00" waitingCount="0" stopTime="0.00" timeLoss="9.04" rerouteNo="0" devices="tripinfo_0BEtoLU.2" vType="passenger3" speedFactor="1.10" vaporized=""/>
    <tripinfo id="randUni18438:1" depart="110.00" departLane="-31146#0_0" departPos="95.23" departSpeed="0.00" departDelay="0.00" arrival="617.50" arrivalLane="-31892#0_0" arrivalPos="38.00" arrivalSpeed="0.78" duration="507.50" routeLength="6517.73" waitingTime="98.00" waitingCount="4" stopTime="0.00" timeLoss="138.83" rerouteNo="0" devices="tripinfo_randUni18438:1" vType="passenger1" speedFactor="1.15" vaporized=""/>
    <tripinfo id="0DEtoFR.4" depart="154.00" departLane="-31622#0_0" departPos="4.60" departSpeed="13.89" departDelay="0.00" arrival="620.80" arrivalLane="-31366#3_1" arrivalPos="20.69" arrivalSpeed="36.87" duration="466.80" routeLength="15901.15" waitingTime="0.00" waitingCount="0" stopTime="0.00" timeLoss="9.46" rerouteNo="0" devices="tripinfo_0DEtoFR.4" vType="passenger2a" speedFactor="1.02" vaporized=""/>
    <tripinfo id="0LUtoDE.3" depart="303.00" departLane="-30706#0_0" departPos="4.60" departSpeed="13.89" departDelay="0.00" arrival="641.10" arrivalLane="-30668#16_1" arrivalPos="272.49" arrivalSpeed="34.94" duration="338.10" routeLength="10512.30" waitingTime="0.00" waitingCount="0" stopTime="0.00" timeLoss="6.22" rerouteNo="0" devices="tripinfo_0LUtoDE.3" vType="passenger2b" speedFactor="0.97" vaporized=""/>
    <tripinfo id="0FRtoBE.3" depart="344.00" departLane="-32426#0_0" departPos="4.60" departSpeed="13.89" departDelay="0.00" arrival="648.10" arrivalLane="-31622#16_1" arrivalPos="305.81" arrivalSpeed="36.58" duration="304.10" routeLength="9592.32" waitingTime="0.00" waitingCount="0" stopTime="0.00" timeLoss="9.23" rerouteNo="0" devices="tripinfo_0FRtoBE.3" vType="passenger2a" speedFactor="1.01" vaporized=""/>
    <tripinfo id="0FRtoBE.4" depart="359.00" departLane="-32426#0_0" departPos="5.10" departSpeed="13.89" departDelay="0.00" arrival="651.00" arrivalLane="-31622#16_1" arrivalPos="305.81" arrivalSpeed="38.42" duration="292.00" routeLength="9591.82" waitingTime="0.00" waitingCount="0" stopTime="0.00" timeLoss="11.18" rerouteNo="0" devices="tripinfo_0FRtoBE.4" vType="passenger1" speedFactor="1.06" vaporized=""/>
    <tripinfo id="0DEtoFR.3" depart="98.00" departLane="-31622#0_0" departPos="5.10" departSpeed="13.89" departDelay="0.00" arrival="651.40" arrivalLane="-31366#3_1" arrivalPos="20.69" arrivalSpeed="30.84" duration="553.40" routeLength="15900.65" waitingTime="0.00" waitingCount="0" stopTime="0.00" timeLoss="5.94" rerouteNo="0" devices="tripinfo_0DEtoFR.3" vType="passenger1" speedFactor="0.85" vaporized=""/>
    <tripinfo id="0LUtoFR.3" depart="315.00" departLane="-30706#0_0" departPos="5.10" departSpeed="13.89" departDelay="0.00" arrival="652.70" arrivalLane="-31366#3_1" arrivalPos="20.69" arrivalSpeed="33.56" duration="337.70" routeLength="8111.00" waitingTime="0.00" waitingCount="0" stopTime="0.00" timeLoss="13.81" rerouteNo="0" devices="tripinfo_0LUtoFR.3" vType="passenger1" speedFactor="0.95" vaporized=""/>
    <tripinfo id="0DEtoBE.2" depart="183.00" departLane="-31622#0_0" departPos="4.60" departSpeed="13.89" departDelay="0.00" arrival="661.70" arrivalLane="-31622#16_2" arrivalPos="305.81" arrivalSpeed="40.34" duration="478.70" routeLength="19107.88" waitingTime="0.00" waitingCount="0" stopTime="0.00" timeLoss="5.93" rerouteNo="0" devices="tripinfo_0DEtoBE.2" vType="passenger2a" speedFactor="1.12" vaporized=""/>
    <tripinfo id="0BEtoLU.1" depart="248.00" departLane="-30668#0_0" departPos="5.10" departSpeed="13.89" departDelay="0.00" arrival="663.20" arrivalLane="-32400#5_0" arrivalPos="257.03" arrivalSpeed="30.05" duration="415.20" routeLength="10745.68" waitingTime="0.00" waitingCount="0" stopTime="0.00" timeLoss="5.56" rerouteNo="0" devices="tripinfo_0BEtoLU.1" vType="passenger1" speedFactor="0.83" vaporized=""/>
    <tripinfo id="0FRtoLU.7" depart="379.00" departLane="-32426#0_0" departPos="7.10" departSpeed="13.89" departDelay="0.00" arrival="664.40" arrivalLane="-32400#5_0" arrivalPos="257.03" arrivalSpeed="29.96" duration="285.40" routeLength="6505.94" waitingTime="0.00" waitingCount="0" stopTime="0.00" timeLoss="34.45" rerouteNo="0" devices="tripinfo_0FRtoLU.7" vType="passenger5" speedFactor="1.10" vaporized=""/>
    <tripinfo id="0DEtoBE.1" depart="180.00" departLane="-31622#0_0" departPos="5.10" departSpeed="13.89" departDelay="0.00" arrival="674.10" arrivalLane="-31622#16_2" arrivalPos="305.81" arrivalSpeed="38.99" duration="494.10" routeLength="19107.38" waitingTime="0.00" waitingCount="0" stopTime="0.00" timeLoss="5.17" rerouteNo="0" devices="tripinfo_0DEtoBE.1" vType="passenger1" speedFactor="1.08" vaporized=""/>
    <tripinfo id="0DEtoLU.4" depart="340.00" departLane="-31622#0_0" departPos="6.10" departSpeed="13.89" departDelay="0.00" arrival="676.20" arrivalLane="-32400#5_1" arrivalPos="257.03" arrivalSpeed="38.64" duration="336.20" routeLength="11352.72" waitingTime="0.00" waitingCount="0" stopTime="0.00" timeLoss="7.22" rerouteNo="0" devices="tripinfo_0DEtoLU.4" vType="passenger3" speedFactor="1.07" vaporized=""/>
    <tripinfo id="randUni1024:1" depart="139.00" departLane="-32924#6_0" departPos="65.73" departSpeed="0.00" departDelay="0.00" arrival="682.50" arrivalLane="-32392#1_0" arrivalPos="3.73" arrivalSpeed="0.90" duration="543.50" routeLength="3746.51" waitingTime="238.10" waitingCount="5" stopTime="0.00" timeLoss="272.73" rerouteNo="0" devices="tripinfo_randUni1024:1" vType="passenger2b" speedFactor="0.99" vaporized=""/>
    <tripinfo id="0FRtoLU.8" depart="405.00" departLane="-32426#0_0" departPos="5.60" departSpeed="13.89" departDelay="0.00" arrival="685.50" arrivalLane="-32400#5_0" arrivalPos="257.03" arrivalSpeed="29.91" duration="280.50" routeLength="6507.44" waitingTime="0.00" waitingCount="0" stopTime="0.00" timeLoss="6.77" rerouteNo="0" devices="tripinfo_0FRtoLU.8" vType="passenger4" speedFactor="0.92" vaporized=""/>
    <tripinfo id="0BEtoFR.5" depart="441.00" departLane="-30668#0_0" departPos="6.10" departSpeed="13.89" departDelay="0.00" arrival="687.90" arrivalLane="-31366#3_1" arrivalPos="20.69" arrivalSpeed="42.01" duration="246.90" routeLength="9434.02" waitingTime="0.00" waitingCount="0" stopTime="0.00" timeLoss="7.98" rerouteNo="0" devices="tripinfo_0BEtoFR.5" vType="passenger3" speedFactor="1.16" vaporized=""/>
    <tripinfo id="0LUtoDE.4" depart="324.00" departLane="-30706#0_0" departPos="5.10" departSpeed="13.89" departDelay="0.00" arrival="689.30" arrivalLane="-30668#16_1" arrivalPos="272.49" arrivalSpeed="32.23" duration="365.30" routeLength="10511.80" waitingTime="0.00" waitingCount="0" stopTime="0.00" timeLoss="5.85" rerouteNo="0" devices="tripinfo_0LUtoDE.4" vType="passenger1" speedFactor="0.89" vaporized=""/>
    <tripinfo id="0FRtoLU.9" depart="470.00" departLane="-32426#0_0" departPos="5.10" departSpeed="13.89" departDelay="0.00" arrival="692.10" arrivalLane="-32400#5_0" arrivalPos="257.03" arrivalSpeed="41.19" duration="222.10" routeLength="6507.94" waitingTime="0.00" waitingCount="0" stopTime="0.00" timeLoss="11.41" rerouteNo="0" devices="tripinfo_0FRtoLU.9" vType="passenger1" speedFactor="1.14" vaporized=""/>